                         Program Version 4.2.1 -  RELEASE  -
|  1> ! pal2
|  2>
|  3> ! def2-svp
|  4> ! ri-jk def2/jk conv
|  5> ! xyzfile
|  6>
|  7> %scf
|  8> 	maxiter		300
|  9> 	end
| 10>
| 11> %casscf
| 12> 	nel		5
| 13> 	norb	5
| 14> 	mult	6
| 15> 	nroots	1
| 16> 	actorbs dorbs
| 17> 	intorbs locorbs
| 18> 	end
| 19>
| 20> *xyzfile -1 6 ./c2v_fecl2br2.xyz
| 21>
| 22>                          ****END OF INPUT****

CARTESIAN COORDINATES (ANGSTROEM)
---------------------------------
  Br     0.000000    1.546952   -0.754960
  Fe     0.000000    0.000000    0.338900
  Cl     1.546952    0.000000    1.432760
  Cl    -1.546952    0.000000    1.432760
  Br     0.000000   -1.546952   -0.754960

 Total Charge           Charge          ....   -1
 Multiplicity           Mult            ....    6
 Number of Electrons    NEL             ....  131
 Basis Dimension        Dim             ....  131

ORBITAL ENERGIES
----------------

  NO   OCC          E(Eh)            E(eV)
   0   2.0000      -6.032799      -164.1608
   1   2.0000      -6.030496      -164.0981
   2   2.0000      -0.605856       -16.4862
   3   2.0000      -5.725065      -155.7869
   4   2.0000     -62.845611     -1710.1160
   5   2.0000     -62.860450     -1710.5198
   6   2.0000     -62.870407     -1710.7908
   7   2.0000     -62.862410     -1710.5731
   8   2.0000    -470.968152    -12815.6949
   9   2.0000      -6.019778      -163.8065
  10   2.0000      -5.429887      -147.7547
  11   2.0000      -5.978548      -162.6846
  12   2.0000      -6.042551      -164.4262
  13   2.0000      -5.720922      -155.6742
  14   2.0000      -6.030442      -164.0967
  15   2.0000      -0.623166       -16.9572
  16   2.0000      -3.373589       -91.8000
  17   2.0000      -3.373706       -91.8032
  18   2.0000      -3.381957       -92.0277
  19   2.0000      -3.382274       -92.0364
  20   2.0000     -30.329122      -825.2974
  21   2.0000     -30.334463      -825.4427
  22   2.0000     -30.334424      -825.4416
  23   2.0000     -30.329678      -825.3125
  24   2.0000    -252.672064     -6875.5564
  25   2.0000      -0.504786       -13.7359
  26   2.0000      -8.986390      -244.5321
  27   2.0000      -8.989670      -244.6214
  28   2.0000      -8.986590      -244.5375
  29   2.0000    -102.150988     -2779.6697
  30   2.0000      -9.018832      -245.4149
  31   2.0000      -0.507014       -13.7965
  32   2.0000      -0.520788       -14.1714
  33   2.0000      -0.506320       -13.7777
  34   2.0000      -8.988811      -244.5980
  35   2.0000      -8.998158      -244.8523
  36   2.0000      -8.977363      -244.2865
  37   2.0000    -102.151012     -2779.6704
  38   2.0000      -9.018504      -245.4060
  39   2.0000      -0.509242       -13.8572
  40   2.0000      -0.515587       -14.0298
  41   2.0000      -6.045162      -164.4972
  42   2.0000      -0.623256       -16.9597
  43   2.0000      -6.027803      -164.0249
  44   2.0000      -5.965348      -162.3254
  45   2.0000     -62.854949     -1710.3701
  46   2.0000     -62.872522     -1710.8483
  47   2.0000     -62.865457     -1710.6561
  48   2.0000     -62.838005     -1709.9090
  49   2.0000    -470.968183    -12815.6958
  50   2.0000      -6.046015      -164.5204
  51   2.0000      -5.394822      -146.8006
  52   2.0000      -5.727679      -155.8581
  53   2.0000      -5.672576      -154.3586
  54   2.0000      -6.075212      -165.3149
  55   2.0000      -6.068833      -165.1413
  56   2.0000      -0.599795       -16.3212
  57   2.0000      -0.598004       -16.2725
  58   2.0000      -0.677490       -18.4355
  59   2.0000      -0.624172       -16.9846
  60   2.0000      -0.624247       -16.9866
  61   2.0000      -0.597880       -16.2691
  62   2.0000      -0.678545       -18.4641
  63   1.0000      -0.099791        -2.7154
  64   1.0000      -0.043845        -1.1931
  65   1.0000      -0.099820        -2.7162
  66   1.0000      -0.050404        -1.3716
  67   1.0000      -0.047828        -1.3015
  68   0.0000       0.247343         6.7306
  69   0.0000       0.555210        15.1080
  70   0.0000       0.556786        15.1509
  71   0.0000       0.561030        15.2664
  72   0.0000       0.644901        17.5487

MULLIKEN ATOMIC CHARGES AND SPIN DENSITIES
------------------------------------------
   0 Br:   -0.453313    0.220635
   1 Fe:    0.839125    4.217508
   2 Cl:   -0.466249    0.170611
   3 Cl:   -0.466249    0.170611
   4 Br:   -0.453313    0.220635
Sum of atomic charges       :   -1.0000000

LOEWDIN ATOMIC CHARGES AND SPIN DENSITIES
-----------------------------------------
   0 Br:   -0.169857    0.234821
   1 Fe:   -0.221527    4.163672
   2 Cl:   -0.219379    0.183343
   3 Cl:   -0.219379    0.183343
   4 Br:   -0.169857    0.234821

  Mayer bond orders larger than 0.100000
B(  0-Br,  1-Fe) :   0.9625 B(  1-Fe,  2-Cl) :   0.9038 B(  1-Fe,  3-Cl) :   0.9038
B(  1-Fe,  4-Br) :   0.9625

FINAL SINGLE POINT ENERGY     -7325.097066316795

DIPOLE MOMENT
-------------
                                X             Y             Z
Electronic contribution:      0.00000      -0.00000      -9.69011
Nuclear contribution   :      0.00000       0.00000       8.94632
                        -----------------------------------------
Total Dipole Moment    :      0.00000      -0.00000      -0.74379
                        -----------------------------------------
Magnitude (a.u.)       :      0.74379
Magnitude (Debye)      :      1.89057

Rotational constants in cm-1:     0.040844     0.030534     0.026952
Rotational constants in MHz :  1224.470632   915.388045   808.010330

                             ****ORCA TERMINATED NORMALLY****
TOTAL RUN TIME: 0 days 0 hours 0 minutes 15 seconds 967 msec
